# vtk DataFile Version 5.1
vtk output
ASCII
DATASET POLYDATA
POINTS 391 float
3.40645 -1.8312 10.5258 3.4069 -1.82991 10.5185 3.40817 -1.82607 10.497 
3.41016 -1.81974 10.4615 3.41277 -1.81098 10.4125 3.4159 -1.79986 10.3505 
3.41944 -1.78641 10.2757 3.4233 -1.77072 10.1887 3.42737 -1.75283 10.0897 
3.43155 -1.7328 9.97925 3.43574 -1.71069 9.85769 3.43983 -1.68656 9.72542 
3.44373 -1.66047 9.58284 3.44733 -1.63247 9.43036 3.45053 -1.60263 9.26836 
3.45323 -1.571 9.09725 3.45532 -1.53764 8.91743 3.45671 -1.50262 8.72929 
3.45729 -1.46598 8.53323 3.45697 -1.42778 8.32966 3.45562 -1.38809 8.11897 
3.45317 -1.34697 7.90155 3.4495 -1.30447 7.67781 3.44451 -1.26064 7.44814 
3.4381 -1.21556 7.21295 3.43018 -1.16927 6.97264 3.42062 -1.12184 6.72759 
3.40934 -1.07332 6.47821 3.39624 -1.02377 6.22489 3.3812 -0.973253 5.96805 
3.36414 -0.921826 5.70806 3.34494 -0.869545 5.44534 3.3235 -0.816471 5.18028 
3.29973 -0.762661 4.91328 3.27352 -0.708173 4.64474 3.24476 -0.653066 4.37506 
3.21337 -0.597399 4.10463 3.17922 -0.54123 3.83385 3.14223 -0.484616 3.56312 
3.1023 -0.427618 3.29284 3.05931 -0.370292 3.02341 3.01316 -0.312698 2.75523 
2.96377 -0.254894 2.4887 2.91101 -0.196938 2.2242 2.8548 -0.138888 1.96215 
2.79502 -0.0808041 1.70294 2.73158 -0.0227433 1.44697 2.66438 0.0352356 1.19464 
2.59331 0.0930741 0.946339 2.51827 0.150714 0.702475 2.43916 0.208097 0.463444 
2.35588 0.265164 0.229643 2.26832 0.321857 0.00147265 2.17639 0.378118 -0.22067 
2.07997 0.433888 -0.436387 1.97898 0.489109 -0.645278 1.8733 0.543723 -0.846947 
1.76284 0.59767 -1.04099 1.64749 0.650893 -1.22702 1.52716 0.703333 -1.40463 
1.40173 0.754932 -1.57342 1.27111 0.805631 -1.733 1.1352 0.855373 -1.88296 
0.993886 0.904097 -2.02291 0.847077 0.951747 -2.15245 0.694668 0.998264 -2.27118 
0.536556 1.04359 -2.3787 0.37264 1.08766 -2.47462 0.202817 1.13043 -2.55853 
0.0269866 1.17183 -2.63004 -0.154955 1.2118 -2.68875 -0.34291 1.2502 -2.73453 
-0.535939 1.28648 -2.76842 -0.732878 1.31999 -2.79177 -0.93256 1.35009 -2.80593 
-1.13382 1.37612 -2.81225 -1.3355 1.39744 -2.81207 -1.53649 1.41343 -2.80676 
-1.7366 1.42389 -2.79785 -1.93622 1.42887 -2.78703 -2.13575 1.42844 -2.77596 
-2.33553 1.42274 -2.76595 -2.53543 1.41238 -2.75603 -2.73511 1.39811 -2.74435 
-2.93426 1.38071 -2.72907 -3.13256 1.36095 -2.70834 -3.32978 1.33958 -2.6809 
-3.52693 1.31708 -2.65381 -3.72529 1.29369 -2.63683 -3.92448 1.26959 -2.63072 
-4.12383 1.24493 -2.63462 -4.32264 1.21987 -2.64768 -4.52034 1.19478 -2.66881 
-4.71848 1.17409 -2.69169 -4.91758 1.15751 -2.71234 -5.11706 1.14178 -2.7293 
-5.31633 1.12369 -2.74112 -5.51483 1.09998 -2.74635 -5.71199 1.06753 -2.74368 
-5.90761 1.02567 -2.73506 -6.10184 0.976459 -2.72603 -6.29481 0.92191 -2.72227 
-6.485 0.860887 -2.72971 -6.67154 0.791951 -2.74817 -6.85635 0.717243 -2.7693 
-7.04155 0.639278 -2.7842 -7.23239 0.579531 -2.78312 -7.42837 0.540729 -2.77505 
-7.6208 0.484903 -2.77497 -7.81023 0.417091 -2.77683 -7.99726 0.342453 -2.77452 
-8.18226 0.264824 -2.76368 -8.36511 0.184377 -2.74478 -8.54556 0.100657 -2.71911 
-8.72338 0.0132116 -2.68797 -8.89834 -0.0784139 -2.65266 -9.07021 -0.174673 -2.61447 
-9.23864 -0.276407 -2.5756 -9.40228 -0.387677 -2.54578 -9.56396 -0.502179 -2.51773 
-9.72849 -0.60929 -2.47763 -9.89563 -0.71211 -2.43617 -10.0647 -0.813604 -2.40077 
-10.2341 -0.915807 -2.37016 -10.4023 -1.02062 -2.34183 -10.5676 -1.12996 -2.31327 
-10.7284 -1.24571 -2.28197 -10.883 -1.36978 -2.24543 -11.0322 -1.49914 -2.20036 
-11.1871 -1.6101 -2.14028 -11.3558 -1.68521 -2.06375 -11.459 -1.71429 -1.89292 
-11.5678 -1.75905 -1.73295 -11.6775 -1.79814 -1.57004 -11.7838 -1.84349 -1.40581 
-11.8838 -1.90842 -1.244 -11.9759 -1.9942 -1.08627 -12.0591 -2.09802 -0.933529 
-12.1324 -2.21704 -0.786718 -12.1948 -2.34844 -0.646748 -12.2529 -2.48048 -0.508437 
-12.3237 -2.59184 -0.358895 -12.4032 -2.68953 -0.201932 -12.4845 -2.78519 -0.0441603 
-12.5637 -2.88523 0.110765 -12.6414 -2.9894 0.262964 -12.7186 -3.09698 0.412803 
-12.7962 -3.20728 0.560649 -12.8754 -3.31876 0.707245 -12.9576 -3.42615 0.855026 
-13.0448 -3.52332 1.00682 -13.1335 -3.61573 1.16067 -13.2156 -3.71969 1.31008 
-13.2916 -3.83408 1.45566 -13.3633 -3.95473 1.59923 -13.4326 -4.07746 1.74265 
-13.5014 -4.19809 1.88774 -13.5714 -4.31403 2.03533 -13.6446 -4.42857 2.18233 
-13.721 -4.54475 2.32658 -13.7988 -4.66351 2.4681 -13.876 -4.78567 2.60706 
-13.9504 -4.91203 2.74365 -14.0202 -5.04343 2.87801 -14.0836 -5.18016 3.01056 
-14.1458 -5.31569 3.1446 -14.2161 -5.43882 3.28543 -14.2907 -5.55455 3.43076 
-14.3536 -5.68415 3.56984 -14.4163 -5.81924 3.70414 -14.4877 -5.95274 3.83524 
-14.5582 -6.0922 3.96046 -14.6225 -6.23985 4.07982 -14.68 -6.39324 4.19543 
-14.73 -6.55413 4.30366 -14.7805 -6.71885 4.40559 -14.8432 -6.86968 4.52079 
-14.9127 -7.01431 4.6414 -14.9802 -7.16509 4.75477 -15.0411 -7.32225 4.86275 
-15.0967 -7.48245 4.96923 -15.151 -7.64423 5.07447 -15.2092 -7.80931 5.17173 
-15.2712 -7.98384 5.2481 -15.313 -8.16679 5.31768 -15.3564 -8.34812 5.39093 
-15.415 -8.52335 5.46901 -15.4852 -8.69267 5.55096 -15.5627 -8.85697 5.63562 
-15.6396 -9.02099 5.72072 -15.7141 -9.18849 5.80093 -15.7939 -9.35793 5.8714 
-15.8751 -9.5298 5.93507 -15.9534 -9.70468 5.99501 -16.0265 -9.88209 6.0545 
-16.1167 -10.0484 6.11863 -16.1902 -10.2225 6.18191 -16.2466 -10.4053 6.24397 
-16.3008 -10.5893 6.30671 -16.3672 -10.7671 6.37199 -16.4497 -10.9366 6.44019 
-16.5417 -11.1012 6.51015 -16.6361 -11.2644 6.58063 -16.7258 -11.4296 6.65042 
-16.8036 -11.6005 6.71829 -16.8625 -11.7799 6.78406 -16.9046 -11.9638 6.85148 
-16.9412 -12.1503 6.91462 -16.9682 -12.3397 6.97393 -16.987 -12.5311 7.03111 
-17.0088 -12.7216 7.08857 -17.0444 -12.9086 7.14863 -17.0929 -13.0923 7.21186 
-17.1458 -13.2744 7.27768 -17.1946 -13.4569 7.34549 -17.2375 -13.6401 7.41466 
-17.2776 -13.8237 7.4845 -17.3176 -14.007 7.55434 -17.3606 -14.1898 7.62349 
-17.4096 -14.3714 7.69129 -17.4653 -14.552 7.75747 -17.5194 -14.7334 7.82362 
-17.5678 -14.9162 7.89092 -17.6108 -15.0996 7.96 -17.6488 -15.283 8.03146 
-17.682 -15.4655 8.1059 -17.7112 -15.6466 8.1836 -17.7398 -15.8273 8.26238 
-17.7722 -16.009 8.33906 -17.8127 -16.1931 8.41047 -17.8629 -16.3784 8.47852 
-17.8898 -16.533 8.60078 -17.9178 -16.6845 8.72865 -17.943 -16.8333 8.86032 
-17.9636 -16.9766 8.99872 -17.9837 -17.1222 9.13465 -18.0004 -17.2713 9.26748 
-18.0114 -17.4193 9.4023 -18.0221 -17.5627 9.54168 -18.0384 -17.6985 9.68783 
-18.0672 -17.8312 9.835 -18.1004 -17.9637 9.98157 -18.1262 -18.0946 10.1309 
-18.1469 -18.2234 10.2829 -18.1715 -18.3499 10.4362 -18.197 -18.4734 10.5918 
-18.2193 -18.594 10.7501 -18.2499 -18.7138 10.9076 -18.2845 -18.8329 11.0648 
-18.3135 -18.9463 11.2271 -18.3551 -19.0584 11.388 -18.3842 -19.1744 11.5484 
-18.4036 -19.2872 11.7128 -18.4388 -19.3949 11.8778 -18.4923 -19.493 12.0438 
-18.5444 -19.583 12.2148 -18.5753 -19.6749 12.3894 -18.581 -19.7621 12.57 
-18.5769 -19.8454 12.7539 -18.5784 -19.9257 12.9384 -18.6005 -20.0027 13.1212 
-18.6431 -20.0759 13.3026 -18.6816 -20.1456 13.4864 -18.7158 -20.2143 13.6716 
-18.7463 -20.2844 13.8567 -18.774 -20.3581 14.0408 -18.8001 -20.4341 14.2243 
-18.8257 -20.5089 14.4083 -18.8512 -20.5797 14.5939 -18.8762 -20.6449 14.7815 
-18.8996 -20.7087 14.9701 -18.9221 -20.7766 15.1577 -18.9467 -20.8474 15.344 
-18.9768 -20.9196 15.5288 -19.0158 -20.9912 15.7118 -19.0671 -21.0607 15.8928 
-19.1318 -21.1262 16.072 -19.1801 -21.186 16.2561 -19.1909 -21.2398 16.4491 
-19.199 -21.2893 16.6432 -19.2143 -21.3338 16.8376 -19.2343 -21.377 17.0318 
-19.2321 -21.4322 17.2247 -19.2477 -21.477 17.4188 -19.2823 -21.509 17.6146 
-19.3161 -21.536 17.8114 -19.3289 -21.566 18.0085 -19.3478 -21.594 18.2052 
-19.3593 -21.6168 18.4027 -19.3348 -21.6397 18.6013 -19.3022 -21.6569 18.8002 
-19.281 -21.6689 18.9989 -19.2641 -21.6896 19.1973 -19.2475 -21.7102 19.3959 
-19.2278 -21.7215 19.5949 -19.1977 -21.7417 19.7913 -19.159 -21.7739 19.9852 
-19.1184 -21.8106 20.1784 -19.0826 -21.8443 20.3728 -19.0543 -21.8709 20.5694 
-19.0234 -21.8996 20.765 -18.9847 -21.9378 20.9578 -18.9546 -21.9813 21.151 
-18.933 -22.0214 21.346 -18.9088 -22.0583 21.5416 -18.8872 -22.0993 21.737 
-18.8949 -22.1322 21.934 -18.9098 -22.1678 22.1306 -18.9216 -22.1949 22.3286 
-18.9166 -22.2272 22.5265 -18.9237 -22.2632 22.7229 -18.9536 -22.2892 22.9193 
-18.9772 -22.3044 23.1176 -19.0038 -22.3272 23.3151 -19.0295 -22.3693 23.5092 
-19.0455 -22.4212 23.7019 -19.0549 -22.4633 23.8975 -19.0672 -22.5163 24.0902 
-19.0741 -22.5618 24.2852 -19.0681 -22.6003 24.4816 -19.0806 -22.6395 24.6775 
-19.1044 -22.6722 24.8742 -19.1236 -22.693 25.0726 -19.1346 -22.7062 25.2723 
-19.1357 -22.717 25.4724 -19.1425 -22.7193 25.6725 -19.1604 -22.714 25.8721 
-19.1568 -22.7258 26.0696 -19.1287 -22.7555 26.2653 -19.087 -22.7929 26.4602 
-19.0424 -22.8278 26.6552 -19.0018 -22.8535 26.851 -18.9632 -22.8717 27.0469 
-18.9236 -22.885 27.2424 -18.8798 -22.8962 27.4369 -18.8286 -22.908 27.6298 
-18.7724 -22.9235 27.8214 -18.7286 -22.9471 28.0153 -18.6948 -22.9754 28.2109 
-18.6582 -23.002 28.406 -18.6081 -23.0213 28.5984 -18.5476 -23.0343 28.7891 
-18.4858 -23.0448 28.9801 -18.4322 -23.0585 29.1728 -18.3954 -23.0822 29.3678 
-18.3721 -23.116 29.5641 -18.3527 -23.1564 29.7595 -18.3392 -23.2059 29.9531 
-18.3319 -23.2625 30.145 -18.3185 -23.2953 30.3414 -18.3024 -23.3145 30.5408 
-18.2913 -23.3429 30.7393 -18.2785 -23.3959 30.931 -18.2525 -23.4732 31.1123 
-18.2181 -23.5693 31.2853 -18.181 -23.6786 31.4523 -18.1468 -23.7954 31.6156 
-18.1213 -23.9142 31.7775 -18.1027 -24.0281 31.9412 -18.0752 -24.1292 32.1112 
-18.0386 -24.2234 32.2845 -18.0038 -24.3258 32.4528 -17.9684 -24.4436 32.6113 
-17.9264 -24.573 32.7609 -17.9095 -24.7032 32.9111 -17.8945 -24.8305 33.063 
-17.8523 -24.9648 33.2077 -17.8334 -25.1037 33.3518 -17.8074 -25.2344 33.5033 
-17.7684 -25.3462 33.6642 -17.7138 -25.432 33.8356 -17.6539 -25.5036 34.0135 
-17.6029 -25.5784 34.1929 -17.5719 -25.6565 34.3748 -17.575 -25.73 34.5601 
-17.5977 -25.8382 34.7272 -17.6198 -25.9101 34.9277 -17.6317 -25.9612 35.1529 
-17.6347 -25.9937 35.3971 -17.6301 -26.01 35.6546 -17.6191 -26.0124 35.9196 
-17.603 -26.0035 36.1864 -17.5832 -25.9854 36.4494 -17.5609 -25.9606 36.7028 
-17.5373 -25.9315 36.9409 -17.5139 -25.9003 37.1581 -17.4919 -25.8695 37.3485 
-17.4725 -25.8415 37.5066 -17.457 -25.8185 37.6266 -17.4468 -25.803 37.7027 
-17.4431 -25.7973 37.7294 
LINES 2 391
OFFSETS vtktypeint64
0 391 
CONNECTIVITY vtktypeint64
0 1 2 3 4 5 6 7 8 
9 10 11 12 13 14 15 16 17 
18 19 20 21 22 23 24 25 26 
27 28 29 30 31 32 33 34 35 
36 37 38 39 40 41 42 43 44 
45 46 47 48 49 50 51 52 53 
54 55 56 57 58 59 60 61 62 
63 64 65 66 67 68 69 70 71 
72 73 74 75 76 77 78 79 80 
81 82 83 84 85 86 87 88 89 
90 91 92 93 94 95 96 97 98 
99 100 101 102 103 104 105 106 107 
108 109 110 111 112 113 114 115 116 
117 118 119 120 121 122 123 124 125 
126 127 128 129 130 131 132 133 134 
135 136 137 138 139 140 141 142 143 
144 145 146 147 148 149 150 151 152 
153 154 155 156 157 158 159 160 161 
162 163 164 165 166 167 168 169 170 
171 172 173 174 175 176 177 178 179 
180 181 182 183 184 185 186 187 188 
189 190 191 192 193 194 195 196 197 
198 199 200 201 202 203 204 205 206 
207 208 209 210 211 212 213 214 215 
216 217 218 219 220 221 222 223 224 
225 226 227 228 229 230 231 232 233 
234 235 236 237 238 239 240 241 242 
243 244 245 246 247 248 249 250 251 
252 253 254 255 256 257 258 259 260 
261 262 263 264 265 266 267 268 269 
270 271 272 273 274 275 276 277 278 
279 280 281 282 283 284 285 286 287 
288 289 290 291 292 293 294 295 296 
297 298 299 300 301 302 303 304 305 
306 307 308 309 310 311 312 313 314 
315 316 317 318 319 320 321 322 323 
324 325 326 327 328 329 330 331 332 
333 334 335 336 337 338 339 340 341 
342 343 344 345 346 347 348 349 350 
351 352 353 354 355 356 357 358 359 
360 361 362 363 364 365 366 367 368 
369 370 371 372 373 374 375 376 377 
378 379 380 381 382 383 384 385 386 
387 388 389 390 
POINT_DATA 391
TEXTURE_COORDINATES TCoords 2 float
0 0 0.0025641 0 0.00512821 0 0.00769231 0 0.0102564 
0 0.0128205 0 0.0153846 0 0.0179487 0 0.0205128 0 
0.0230769 0 0.025641 0 0.0282051 0 0.0307692 0 0.0333333 
0 0.0358974 0 0.0384615 0 0.0410256 0 0.0435897 0 
0.0461538 0 0.0487179 0 0.0512821 0 0.0538462 0 0.0564103 
0 0.0589744 0 0.0615385 0 0.0641026 0 0.0666667 0 
0.0692308 0 0.0717949 0 0.074359 0 0.0769231 0 0.0794872 
0 0.0820513 0 0.0846154 0 0.0871795 0 0.0897436 0 
0.0923077 0 0.0948718 0 0.0974359 0 0.1 0 0.102564 
0 0.105128 0 0.107692 0 0.110256 0 0.112821 0 
0.115385 0 0.117949 0 0.120513 0 0.123077 0 0.125641 
0 0.128205 0 0.130769 0 0.133333 0 0.135897 0 
0.138462 0 0.141026 0 0.14359 0 0.146154 0 0.148718 
0 0.151282 0 0.153846 0 0.15641 0 0.158974 0 
0.161538 0 0.164103 0 0.166667 0 0.169231 0 0.171795 
0 0.174359 0 0.176923 0 0.179487 0 0.182051 0 
0.184615 0 0.187179 0 0.189744 0 0.192308 0 0.194872 
0 0.197436 0 0.2 0 0.202564 0 0.205128 0 
0.207692 0 0.210256 0 0.212821 0 0.215385 0 0.217949 
0 0.220513 0 0.223077 0 0.225641 0 0.228205 0 
0.230769 0 0.233333 0 0.235897 0 0.238462 0 0.241026 
0 0.24359 0 0.246154 0 0.248718 0 0.251282 0 
0.253846 0 0.25641 0 0.258974 0 0.261538 0 0.264103 
0 0.266667 0 0.269231 0 0.271795 0 0.274359 0 
0.276923 0 0.279487 0 0.282051 0 0.284615 0 0.287179 
0 0.289744 0 0.292308 0 0.294872 0 0.297436 0 
0.3 0 0.302564 0 0.305128 0 0.307692 0 0.310256 
0 0.312821 0 0.315385 0 0.317949 0 0.320513 0 
0.323077 0 0.325641 0 0.328205 0 0.330769 0 0.333333 
0 0.335897 0 0.338462 0 0.341026 0 0.34359 0 
0.346154 0 0.348718 0 0.351282 0 0.353846 0 0.35641 
0 0.358974 0 0.361538 0 0.364103 0 0.366667 0 
0.369231 0 0.371795 0 0.374359 0 0.376923 0 0.379487 
0 0.382051 0 0.384615 0 0.387179 0 0.389744 0 
0.392308 0 0.394872 0 0.397436 0 0.4 0 0.402564 
0 0.405128 0 0.407692 0 0.410256 0 0.412821 0 
0.415385 0 0.417949 0 0.420513 0 0.423077 0 0.425641 
0 0.428205 0 0.430769 0 0.433333 0 0.435897 0 
0.438462 0 0.441026 0 0.44359 0 0.446154 0 0.448718 
0 0.451282 0 0.453846 0 0.45641 0 0.458974 0 
0.461538 0 0.464103 0 0.466667 0 0.469231 0 0.471795 
0 0.474359 0 0.476923 0 0.479487 0 0.482051 0 
0.484615 0 0.487179 0 0.489744 0 0.492308 0 0.494872 
0 0.497436 0 0.5 0 0.502564 0 0.505128 0 
0.507692 0 0.510256 0 0.512821 0 0.515385 0 0.517949 
0 0.520513 0 0.523077 0 0.525641 0 0.528205 0 
0.530769 0 0.533333 0 0.535897 0 0.538462 0 0.541026 
0 0.54359 0 0.546154 0 0.548718 0 0.551282 0 
0.553846 0 0.55641 0 0.558974 0 0.561538 0 0.564103 
0 0.566667 0 0.569231 0 0.571795 0 0.574359 0 
0.576923 0 0.579487 0 0.582051 0 0.584615 0 0.587179 
0 0.589744 0 0.592308 0 0.594872 0 0.597436 0 
0.6 0 0.602564 0 0.605128 0 0.607692 0 0.610256 
0 0.612821 0 0.615385 0 0.617949 0 0.620513 0 
0.623077 0 0.625641 0 0.628205 0 0.630769 0 0.633333 
0 0.635897 0 0.638462 0 0.641026 0 0.64359 0 
0.646154 0 0.648718 0 0.651282 0 0.653846 0 0.65641 
0 0.658974 0 0.661538 0 0.664103 0 0.666667 0 
0.669231 0 0.671795 0 0.674359 0 0.676923 0 0.679487 
0 0.682051 0 0.684615 0 0.68718 0 0.689744 0 
0.692308 0 0.694872 0 0.697436 0 0.7 0 0.702564 
0 0.705128 0 0.707692 0 0.710256 0 0.712821 0 
0.715385 0 0.717949 0 0.720513 0 0.723077 0 0.725641 
0 0.728205 0 0.730769 0 0.733333 0 0.735897 0 
0.738462 0 0.741026 0 0.74359 0 0.746154 0 0.748718 
0 0.751282 0 0.753846 0 0.75641 0 0.758974 0 
0.761538 0 0.764103 0 0.766667 0 0.769231 0 0.771795 
0 0.774359 0 0.776923 0 0.779487 0 0.782051 0 
0.784615 0 0.787179 0 0.789744 0 0.792308 0 0.794872 
0 0.797436 0 0.8 0 0.802564 0 0.805128 0 
0.807692 0 0.810256 0 0.81282 0 0.815385 0 0.817949 
0 0.820513 0 0.823077 0 0.825641 0 0.828205 0 
0.830769 0 0.833333 0 0.835897 0 0.838462 0 0.841026 
0 0.84359 0 0.846154 0 0.848718 0 0.851282 0 
0.853846 0 0.85641 0 0.858974 0 0.861538 0 0.864103 
0 0.866667 0 0.869231 0 0.871795 0 0.874359 0 
0.876923 0 0.879487 0 0.882051 0 0.884615 0 0.887179 
0 0.889744 0 0.892308 0 0.894872 0 0.897436 0 
0.9 0 0.902564 0 0.905128 0 0.907692 0 0.910256 
0 0.912821 0 0.915385 0 0.917949 0 0.920513 0 
0.923077 0 0.925641 0 0.928205 0 0.930769 0 0.933333 
0 0.935897 0 0.938462 0 0.941026 0 0.94359 0 
0.946154 0 0.948718 0 0.951282 0 0.953846 0 0.95641 
0 0.958974 0 0.961538 0 0.964103 0 0.966667 0 
0.969231 0 0.971795 0 0.974359 0 0.976923 0 0.979487 
0 0.982051 0 0.984615 0 0.987179 0 0.989744 0 
0.992308 0 0.994872 0 0.997436 0 1 0 
FIELD FieldData 1
MaximumInscribedSphereRadius 1 391 double
14.022475206 14.022475206 14.022475206 14.022475206 14.022475206 14.022475206 14.022475206 14.022475206 14.022475206 
14.022475206 14.022475206 14.022475206 14.022475206 14.022475206 14.022475206 14.022475206 14.022475206 14.022475206 
14.022475206 14.022475206 14.022475206 14.022475206 14.022475206 14.022475206 14.022475206 14.022475206 14.022475206 
14.022475206 14.022475206 14.022475206 14.022475206 14.022475206 14.022475206 14.022475206 14.022475206 14.022475206 
14.022475206 14.022475206 14.022475206 14.022475206 14.022475206 14.022475206 14.022475206 14.022475206 14.022475206 
14.022475206 14.022475206 14.022475206 14.022475206 14.022475206 14.022475206 14.022475206 14.022475206 14.022475206 
14.022475206 14.022475206 14.022475206 14.022475206 14.022475206 14.022475206 14.022475206 14.022475206 14.022475206 
14.022475206 14.022475206 14.022475206 14.022475206 14.022475206 14.022475206 14.022475206 14.022475206 14.099388731 
14.17796642 14.256544109 14.335121798 14.413699487 14.492277176 14.559109726 14.619576303 14.680042881 14.740509459 
14.795169422 14.848811032 14.902452642 14.956094252 15.009735861 15.061452966 15.111779793 15.160304928 15.208830063 
15.257355198 15.305880334 15.356706323 15.416551865 15.476397406 15.536242948 15.596088489 15.655934031 15.705008382 
15.742086885 15.779165389 15.814513681 15.841831464 15.860036272 15.878241079 15.897999086 15.923763588 15.951741549 
15.977367555 16.002993561 16.025568826 16.026809173 16.028049519 16.029289866 16.030530213 16.03177056 16.033010906 
16.017048471 15.99509743 15.974731225 15.956182063 15.939273794 15.929603936 15.919934079 15.910264222 15.900594365 
15.890924508 15.881254651 15.860473739 15.839526843 15.842364931 15.805791221 15.763053978 15.720702207 15.678350436 
15.595277038 15.507396428 15.419515818 15.331635207 15.240135807 15.133358958 15.048663722 14.963968486 14.881499939 
14.802279175 14.723058411 14.643837646 14.564616882 14.489698712 14.414949734 14.345548047 14.284890924 14.212195819 
14.139500715 14.066805611 13.994110507 13.921511732 13.854537177 13.786952998 13.718534202 13.650115407 13.581696612 
13.513277817 13.444859021 13.375678009 13.306054822 13.241884379 13.191414088 13.129460807 13.06738716 13.004346287 
12.933375726 12.859132831 12.784889935 12.700099784 12.612415108 12.542250754 12.472086401 12.399950368 12.32502337 
12.249245022 12.172622825 12.093542565 11.994968177 11.89259534 11.796394637 11.702389542 11.608384447 11.524696879 
11.442293293 11.353098494 11.26223388 11.171369267 11.080504653 10.990975461 10.904122118 10.816798469 10.729474819 
10.642151169 10.563999139 10.495354142 10.426709144 10.358064146 10.289419148 10.220774151 10.150567908 10.081276387 
10.011537843 9.9444696102 9.8821572919 9.8198449736 9.7628686118 9.7085826065 9.6542966012 9.6092599872 9.5697972749 
9.5303345626 9.4908718503 9.451409138 9.4119464257 9.3747197382 9.3457371974 9.3206199114 9.2955026254 9.2703853395 
9.2452680535 9.2304595161 9.2178686316 9.2052777471 9.1926868626 9.1838521192 9.136180002 9.0675629083 8.9970890197 
8.9237894635 8.8486586398 8.7740033149 8.7004368808 8.6268704467 8.5528974412 8.4739756691 8.3949178376 8.3186355327 
8.243081232 8.1675685474 8.095691257 8.0241837001 7.9538126448 7.8874812843 7.8193684868 7.7517119475 7.6835488084 
7.614955088 7.5489348552 7.483833163 7.4141013409 7.3351908928 7.2533742893 7.1733513033 7.0952189852 7.0170866671 
6.9486626764 6.8831885199 6.8177143633 6.7522402067 6.6945257185 6.640447802 6.5895408303 6.5421769002 6.4956475612 
6.4546337677 6.4231175544 6.3916013411 6.3600851278 6.3285689146 6.2970527013 6.2760987595 6.2602540647 6.2314946722 
6.2034639675 6.1754332629 6.1472138225 6.112734083 6.0830726767 6.0544496849 6.025826693 5.9972037012 5.9730002483 
5.9403617434 5.9062483523 5.8722407489 5.8405500675 5.8100180955 5.7794861235 5.7500925335 5.7259030422 5.7026522446 
5.679401447 5.6562216607 5.6344575535 5.6123166072 5.5872242672 5.563272886 5.5388216122 5.5107251576 5.4851183202 
5.4610105468 5.4385009281 5.4159168761 5.3966039921 5.3762208298 5.3514069525 5.3229239312 5.2922442984 5.2606350399 
5.2216320958 5.1787888201 5.1336758449 5.0863792293 5.0354043461 4.9785826738 4.9220044363 4.8660096043 4.8100147724 
4.7561260707 4.7060570651 4.6572560998 4.6029690875 4.5474628359 4.4919565843 4.4406275814 4.4055908747 4.370554168 
4.3355174613 4.3004807547 4.2663829994 4.2517016247 4.2409149638 4.2309959047 4.2210768456 4.2226966463 4.2272132971 
4.2295612856 4.2299297321 4.2321791675 4.2343437064 4.2331354753 4.2319272442 4.2340427329 4.2168761362 4.1997095394 
4.1828101396 4.1563900941 4.1201418576 4.0838936211 4.0476453845 4.011397148 3.9764155849 3.9457081345 3.9171943104 
3.8899511964 3.8611790137 3.830714258 3.7987050593 3.7666958606 3.7244064612 3.680380371 3.6354131923 3.5905821101 
3.545751028 3.4750211072 3.4020091548 3.3273445645 3.2501111167 3.1519986801 3.0314500097 3.0314500097 3.0314500097 
3.0314500097 3.0314500097 3.0314500097 3.0314500097 3.0314500097 3.0314500097 3.0314500097 3.0314500097 3.0314500097 
3.0314500097 3.0314500097 3.0314500097 3.0314500097 
